                         Program Version 4.2.1 -  RELEASE  -
|  1> ! wb97m-D3BJ def2-TZVPP rijcosx tightscf SCFConvForced
|  2> %base"molecule"
|  3> *xyz 0 1
|  4> O -1.3637903 -0.2529970 0.0012144
|  5> H -0.4197196 -0.0940599 0.0005973
|  6> H -1.7778177 0.6077623 -0.0005227
|  7> O 1.1050447 0.1626388 -0.0003994
|  8> H 1.7347029 -0.5607554 -0.0021125
|  9> H 1.6320208 0.9648187 0.0125719
| 10> *
| 11> $new_job
| 12> ! wb97m-D3BJ def2-TZVPP rijcosx tightscf SCFConvForced
| 13> %base"molecule"
| 14> *xyz 0 1
| 15> O -1.4637903 -0.2529970 0.0012144
| 16> H -0.5197196 -0.0940599 0.0005973
| 17> H -1.8778177 0.6077623 -0.0005227
| 18> O 1.1050447 0.1626388 -0.0003994
| 19> H 1.7347029 -0.5607554 -0.0021125
| 20> H 1.6320208 0.9648187 0.0125719
| 21> *
| 22> $new_job
| 23> ! wb97m-D3BJ def2-TZVPP rijcosx tightscf SCFConvForced
| 24> %base"molecule"
| 25> *xyz 0 1
| 26> O -1.5637903 -0.2529970 0.0012144
| 27> H -0.6197196 -0.0940599 0.0005973
| 28> H -1.9778177 0.6077623 -0.0005227
| 29> O 1.1050447 0.1626388 -0.0003994
| 30> H 1.7347029 -0.5607554 -0.0021125
| 31> H 1.6320208 0.9648187 0.0125719
| 32> *
| 33> $new_job
| 34> ! wb97m-D3BJ def2-TZVPP rijcosx tightscf SCFConvForced
| 35> %base"molecule"
| 36> *xyz 0 1
| 37> O -1.6637903 -0.2529970 0.0012144
| 38> H -0.7197196 -0.0940599 0.0005973
| 39> H -2.0778177 0.6077623 -0.0005227
| 40> O 1.1050447 0.1626388 -0.0003994
| 41> H 1.7347029 -0.5607554 -0.0021125
| 42> H 1.6320208 0.9648187 0.0125719
| 43> *
| 44> $new_job
| 45> ! wb97m-D3BJ def2-TZVPP rijcosx tightscf SCFConvForced
| 46> %base"molecule"
| 47> *xyz 0 1
| 48> O -1.7637902 -0.2529970 0.0012144
| 49> H -0.8197196 -0.0940599 0.0005973
| 50> H -2.1778176 0.6077623 -0.0005227
| 51> O 1.1050447 0.1626388 -0.0003994
| 52> H 1.7347029 -0.5607554 -0.0021125
| 53> H 1.6320208 0.9648187 0.0125719
| 54> *
| 55> $new_job
| 56> ! wb97m-D3BJ def2-TZVPP rijcosx tightscf SCFConvForced
| 57> %base"molecule"
| 58> *xyz 0 1
| 59> O -1.8637903 -0.2529970 0.0012144
| 60> H -0.9197196 -0.0940599 0.0005973
| 61> H -2.2778177 0.6077623 -0.0005227
| 62> O 1.1050447 0.1626388 -0.0003994
| 63> H 1.7347029 -0.5607554 -0.0021125
| 64> H 1.6320208 0.9648187 0.0125719
| 65> *
| 66> $new_job
| 67> ! wb97m-D3BJ def2-TZVPP rijcosx tightscf SCFConvForced
| 68> %base"molecule"
| 69> *xyz 0 1
| 70> O -1.9637903 -0.2529970 0.0012144
| 71> H -1.0197196 -0.0940599 0.0005973
| 72> H -2.3778176 0.6077623 -0.0005227
| 73> O 1.1050447 0.1626388 -0.0003994
| 74> H 1.7347029 -0.5607554 -0.0021125
| 75> H 1.6320208 0.9648187 0.0125719
| 76> *
| 77> $new_job
| 78> ! wb97m-D3BJ def2-TZVPP rijcosx tightscf SCFConvForced
| 79> %base"molecule"
| 80> *xyz 0 1
| 81> O -2.0637903 -0.2529970 0.0012144
| 82> H -1.1197196 -0.0940599 0.0005973
| 83> H -2.4778178 0.6077623 -0.0005227
| 84> O 1.1050447 0.1626388 -0.0003994
| 85> H 1.7347029 -0.5607554 -0.0021125
| 86> H 1.6320208 0.9648187 0.0125719
| 87> *
| 88> $new_job
| 89> ! wb97m-D3BJ def2-TZVPP rijcosx tightscf SCFConvForced
| 90> %base"molecule"
| 91> *xyz 0 1
| 92> O -2.1637902 -0.2529970 0.0012144
| 93> H -1.2197196 -0.0940599 0.0005973
| 94> H -2.5778177 0.6077623 -0.0005227
| 95> O 1.1050447 0.1626388 -0.0003994
| 96> H 1.7347029 -0.5607554 -0.0021125
| 97> H 1.6320208 0.9648187 0.0125719
| 98> *
| 99> $new_job
|100> ! wb97m-D3BJ def2-TZVPP rijcosx tightscf SCFConvForced
|101> %base"molecule"
|102> *xyz 0 1
|103> O -2.2637904 -0.2529970 0.0012144
|104> H -1.3197196 -0.0940599 0.0005973
|105> H -2.6778176 0.6077623 -0.0005227
|106> O 1.1050447 0.1626388 -0.0003994
|107> H 1.7347029 -0.5607554 -0.0021125
|108> H 1.6320208 0.9648187 0.0125719
|109> *
|110> $new_job
|111> ! wb97m-D3BJ def2-TZVPP rijcosx tightscf SCFConvForced
|112> %base"molecule"
|113> *xyz 0 1
|114> O -2.3637903 -0.2529970 0.0012144
|115> H -1.4197196 -0.0940599 0.0005973
|116> H -2.7778177 0.6077623 -0.0005227
|117> O 1.1050447 0.1626388 -0.0003994
|118> H 1.7347029 -0.5607554 -0.0021125
|119> H 1.6320208 0.9648187 0.0125719
|120> *
|121> $new_job
|122> ! wb97m-D3BJ def2-TZVPP rijcosx tightscf SCFConvForced
|123> %base"molecule"
|124> *xyz 0 1
|125> O -2.4637904 -0.2529970 0.0012144
|126> H -1.5197196 -0.0940599 0.0005973
|127> H -2.8778176 0.6077623 -0.0005227
|128> O 1.1050447 0.1626388 -0.0003994
|129> H 1.7347029 -0.5607554 -0.0021125
|130> H 1.6320208 0.9648187 0.0125719
|131> *
|132> $new_job
|133> ! wb97m-D3BJ def2-TZVPP rijcosx tightscf SCFConvForced
|134> %base"molecule"
|135> *xyz 0 1
|136> O -2.5637903 -0.2529970 0.0012144
|137> H -1.6197196 -0.0940599 0.0005973
|138> H -2.9778178 0.6077623 -0.0005227
|139> O 1.1050447 0.1626388 -0.0003994
|140> H 1.7347029 -0.5607554 -0.0021125
|141> H 1.6320208 0.9648187 0.0125719
|142> *
|143> $new_job
|144> ! wb97m-D3BJ def2-TZVPP rijcosx tightscf SCFConvForced
|145> %base"molecule"
|146> *xyz 0 1
|147> O -2.6637902 -0.2529970 0.0012144
|148> H -1.7197196 -0.0940599 0.0005973
|149> H -3.0778177 0.6077623 -0.0005227
|150> O 1.1050447 0.1626388 -0.0003994
|151> H 1.7347029 -0.5607554 -0.0021125
|152> H 1.6320208 0.9648187 0.0125719
|153> *
|154> $new_job
|155> ! wb97m-D3BJ def2-TZVPP rijcosx tightscf SCFConvForced
|156> %base"molecule"
|157> *xyz 0 1
|158> O -2.7637904 -0.2529970 0.0012144
|159> H -1.8197196 -0.0940599 0.0005973
|160> H -3.1778176 0.6077623 -0.0005227
|161> O 1.1050447 0.1626388 -0.0003994
|162> H 1.7347029 -0.5607554 -0.0021125
|163> H 1.6320208 0.9648187 0.0125719
|164> *
|165> $new_job
|166> ! wb97m-D3BJ def2-TZVPP rijcosx tightscf SCFConvForced
|167> %base"molecule"
|168> *xyz 0 1
|169> O -2.8637903 -0.2529970 0.0012144
|170> H -1.9197196 -0.0940599 0.0005973
|171> H -3.2778177 0.6077623 -0.0005227
|172> O 1.1050447 0.1626388 -0.0003994
|173> H 1.7347029 -0.5607554 -0.0021125
|174> H 1.6320208 0.9648187 0.0125719
|175> *
|176> $new_job
|177> ! wb97m-D3BJ def2-TZVPP rijcosx tightscf SCFConvForced
|178> %base"molecule"
|179> *xyz 0 1
|180> O -2.9637904 -0.2529970 0.0012144
|181> H -2.0197196 -0.0940599 0.0005973
|182> H -3.3778176 0.6077623 -0.0005227
|183> O 1.1050447 0.1626388 -0.0003994
|184> H 1.7347029 -0.5607554 -0.0021125
|185> H 1.6320208 0.9648187 0.0125719
|186> *
|187> $new_job
|188> ! wb97m-D3BJ def2-TZVPP rijcosx tightscf SCFConvForced
|189> %base"molecule"
|190> *xyz 0 1
|191> O -3.0637903 -0.2529970 0.0012144
|192> H -2.1197195 -0.0940599 0.0005973
|193> H -3.4778178 0.6077623 -0.0005227
|194> O 1.1050447 0.1626388 -0.0003994
|195> H 1.7347029 -0.5607554 -0.0021125
|196> H 1.6320208 0.9648187 0.0125719
|197> *
|198> $new_job
|199> ! wb97m-D3BJ def2-TZVPP rijcosx tightscf SCFConvForced
|200> %base"molecule"
|201> *xyz 0 1
|202> O -3.1637902 -0.2529970 0.0012144
|203> H -2.2197196 -0.0940599 0.0005973
|204> H -3.5778177 0.6077623 -0.0005227
|205> O 1.1050447 0.1626388 -0.0003994
|206> H 1.7347029 -0.5607554 -0.0021125
|207> H 1.6320208 0.9648187 0.0125719
|208> *
|209> $new_job
|210> ! wb97m-D3BJ def2-TZVPP rijcosx tightscf SCFConvForced
|211> %base"molecule"
|212> *xyz 0 1
|213> O -3.2637904 -0.2529970 0.0012144
|214> H -2.3197196 -0.0940599 0.0005973
|215> H -3.6778176 0.6077623 -0.0005227
|216> O 1.1050447 0.1626388 -0.0003994
|217> H 1.7347029 -0.5607554 -0.0021125
|218> H 1.6320208 0.9648187 0.0125719
|219> *
|220> $new_job
|221> ! wb97m-D3BJ def2-TZVPP rijcosx tightscf SCFConvForced
|222> %base"molecule"
|223> *xyz 0 1
|224> O -3.3637903 -0.2529970 0.0012144
|225> H -2.4197197 -0.0940599 0.0005973
|226> H -3.7778177 0.6077623 -0.0005227
|227> O 1.1050447 0.1626388 -0.0003994
|228> H 1.7347029 -0.5607554 -0.0021125
|229> H 1.6320208 0.9648187 0.0125719
|230> *
|231> $new_job
|232> ! wb97m-D3BJ def2-TZVPP rijcosx tightscf SCFConvForced
|233> %base"molecule"
|234> *xyz 0 1
|235> O -3.4637904 -0.2529970 0.0012144
|236> H -2.5197196 -0.0940599 0.0005973
|237> H -3.8778176 0.6077623 -0.0005227
|238> O 1.1050447 0.1626388 -0.0003994
|239> H 1.7347029 -0.5607554 -0.0021125
|240> H 1.6320208 0.9648187 0.0125719
|241> *
|242> $new_job
|243> ! wb97m-D3BJ def2-TZVPP rijcosx tightscf SCFConvForced
|244> %base"molecule"
|245> *xyz 0 1
|246> O -3.5637903 -0.2529970 0.0012144
|247> H -2.6197195 -0.0940599 0.0005973
|248> H -3.9778178 0.6077623 -0.0005227
|249> O 1.1050447 0.1626388 -0.0003994
|250> H 1.7347029 -0.5607554 -0.0021125
|251> H 1.6320208 0.9648187 0.0125719
|252> *
|253> $new_job
|254> ! wb97m-D3BJ def2-TZVPP rijcosx tightscf SCFConvForced
|255> %base"molecule"
|256> *xyz 0 1
|257> O -3.6637902 -0.2529970 0.0012144
|258> H -2.7197196 -0.0940599 0.0005973
|259> H -4.0778179 0.6077623 -0.0005227
|260> O 1.1050447 0.1626388 -0.0003994
|261> H 1.7347029 -0.5607554 -0.0021125
|262> H 1.6320208 0.9648187 0.0125719
|263> *
|264> $new_job
|265> ! wb97m-D3BJ def2-TZVPP rijcosx tightscf SCFConvForced
|266> %base"molecule"
|267> *xyz 0 1
|268> O -3.7637904 -0.2529970 0.0012144
|269> H -2.8197196 -0.0940599 0.0005973
|270> H -4.1778178 0.6077623 -0.0005227
|271> O 1.1050447 0.1626388 -0.0003994
|272> H 1.7347029 -0.5607554 -0.0021125
|273> H 1.6320208 0.9648187 0.0125719
|274> *
|275> $new_job
|276> ! wb97m-D3BJ def2-TZVPP rijcosx tightscf SCFConvForced
|277> %base"molecule"
|278> *xyz 0 1
|279> O -3.8637903 -0.2529970 0.0012144
|280> H -2.9197197 -0.0940599 0.0005973
|281> H -4.2778177 0.6077623 -0.0005227
|282> O 1.1050447 0.1626388 -0.0003994
|283> H 1.7347029 -0.5607554 -0.0021125
|284> H 1.6320208 0.9648187 0.0125719
|285> *
|286> $new_job
|287> ! wb97m-D3BJ def2-TZVPP rijcosx tightscf SCFConvForced
|288> %base"molecule"
|289> *xyz 0 1
|290> O -3.9637904 -0.2529970 0.0012144
|291> H -3.0197196 -0.0940599 0.0005973
|292> H -4.3778176 0.6077623 -0.0005227
|293> O 1.1050447 0.1626388 -0.0003994
|294> H 1.7347029 -0.5607554 -0.0021125
|295> H 1.6320208 0.9648187 0.0125719
|296> *
|297> $new_job
|298> ! wb97m-D3BJ def2-TZVPP rijcosx tightscf SCFConvForced
|299> %base"molecule"
|300> *xyz 0 1
|301> O -4.0637903 -0.2529970 0.0012144
|302> H -3.1197195 -0.0940599 0.0005973
|303> H -4.4778175 0.6077623 -0.0005227
|304> O 1.1050447 0.1626388 -0.0003994
|305> H 1.7347029 -0.5607554 -0.0021125
|306> H 1.6320208 0.9648187 0.0125719
|307> *
|308> $new_job
|309> ! wb97m-D3BJ def2-TZVPP rijcosx tightscf SCFConvForced
|310> %base"molecule"
|311> *xyz 0 1
|312> O -4.1637902 -0.2529970 0.0012144
|313> H -3.2197196 -0.0940599 0.0005973
|314> H -4.5778179 0.6077623 -0.0005227
|315> O 1.1050447 0.1626388 -0.0003994
|316> H 1.7347029 -0.5607554 -0.0021125
|317> H 1.6320208 0.9648187 0.0125719
|318> *
|319> $new_job
|320> ! wb97m-D3BJ def2-TZVPP rijcosx tightscf SCFConvForced
|321> %base"molecule"
|322> *xyz 0 1
|323> O -4.2637901 -0.2529970 0.0012144
|324> H -3.3197196 -0.0940599 0.0005973
|325> H -4.6778178 0.6077623 -0.0005227
|326> O 1.1050447 0.1626388 -0.0003994
|327> H 1.7347029 -0.5607554 -0.0021125
|328> H 1.6320208 0.9648187 0.0125719
|329> *
|330> $new_job
|331> ! wb97m-D3BJ def2-TZVPP rijcosx tightscf SCFConvForced
|332> %base"molecule"
|333> *xyz 0 1
|334> O -4.3637905 -0.2529970 0.0012144
|335> H -3.4197197 -0.0940599 0.0005973
|336> H -4.7778177 0.6077623 -0.0005227
|337> O 1.1050447 0.1626388 -0.0003994
|338> H 1.7347029 -0.5607554 -0.0021125
|339> H 1.6320208 0.9648187 0.0125719
|340> *
|341> $new_job
|342> ! wb97m-D3BJ def2-TZVPP rijcosx tightscf SCFConvForced
|343> %base"molecule"
|344> *xyz 0 1
|345> O -4.4637904 -0.2529970 0.0012144
|346> H -3.5197196 -0.0940599 0.0005973
|347> H -4.8778176 0.6077623 -0.0005227
|348> O 1.1050447 0.1626388 -0.0003994
|349> H 1.7347029 -0.5607554 -0.0021125
|350> H 1.6320208 0.9648187 0.0125719
|351> *
|352> $new_job
|353> ! wb97m-D3BJ def2-TZVPP rijcosx tightscf SCFConvForced
|354> %base"molecule"
|355> *xyz 0 1
|356> O -4.5637903 -0.2529970 0.0012144
|357> H -3.6197195 -0.0940599 0.0005973
|358> H -4.9778175 0.6077623 -0.0005227
|359> O 1.1050447 0.1626388 -0.0003994
|360> H 1.7347029 -0.5607554 -0.0021125
|361> H 1.6320208 0.9648187 0.0125719
|362> *
|363> $new_job
|364> ! wb97m-D3BJ def2-TZVPP rijcosx tightscf SCFConvForced
|365> %base"molecule"
|366> *xyz 0 1
|367> O -4.6637902 -0.2529970 0.0012144
|368> H -3.7197196 -0.0940599 0.0005973
|369> H -5.0778179 0.6077623 -0.0005227
|370> O 1.1050447 0.1626388 -0.0003994
|371> H 1.7347029 -0.5607554 -0.0021125
|372> H 1.6320208 0.9648187 0.0125719
|373> *
|374> $new_job
|375> ! wb97m-D3BJ def2-TZVPP rijcosx tightscf SCFConvForced
|376> %base"molecule"
|377> *xyz 0 1
|378> O -4.7637901 -0.2529970 0.0012144
|379> H -3.8197196 -0.0940599 0.0005973
|380> H -5.1778178 0.6077623 -0.0005227
|381> O 1.1050447 0.1626388 -0.0003994
|382> H 1.7347029 -0.5607554 -0.0021125
|383> H 1.6320208 0.9648187 0.0125719
|384> *
|385> $new_job
|386> ! wb97m-D3BJ def2-TZVPP rijcosx tightscf SCFConvForced
|387> %base"molecule"
|388> *xyz 0 1
|389> O -4.8637905 -0.2529970 0.0012144
|390> H -3.9197197 -0.0940599 0.0005973
|391> H -5.2778177 0.6077623 -0.0005227
|392> O 1.1050447 0.1626388 -0.0003994
|393> H 1.7347029 -0.5607554 -0.0021125
|394> H 1.6320208 0.9648187 0.0125719
|395> *
|396> $new_job
|397> ! wb97m-D3BJ def2-TZVPP rijcosx tightscf SCFConvForced
|398> %base"molecule"
|399> *xyz 0 1
|400> O -4.9637904 -0.2529970 0.0012144
|427> H 1.6320208 0.9648187 0.0125719
|428> *
|429> $new_job
|430> ! wb97m-D3BJ def2-TZVPP rijcosx tightscf SCFConvForced
|431> %base"molecule"
|432> *xyz 0 1
|433> O -5.2637901 -0.2529970 0.0012144
|434> H -4.3197198 -0.0940599 0.0005973
|435> H -5.6778178 0.6077623 -0.0005227
|436> O 1.1050447 0.1626388 -0.0003994
|437> H 1.7347029 -0.5607554 -0.0021125
|438> H 1.6320208 0.9648187 0.0125719
|439> *
|440> $new_job
|441> ! wb97m-D3BJ def2-TZVPP rijcosx tightscf SCFConvForced
|442> %base"molecule"
|443> *xyz 0 1
|444> O -5.3637905 -0.2529970 0.0012144
|445> H -4.4197197 -0.0940599 0.0005973
|446> H -5.7778177 0.6077623 -0.0005227
|447> O 1.1050447 0.1626388 -0.0003994
|448> H 1.7347029 -0.5607554 -0.0021125
|449> H 1.6320208 0.9648187 0.0125719
|450> *
|451> $new_job
|452> ! wb97m-D3BJ def2-TZVPP rijcosx tightscf SCFConvForced
|453> %base"molecule"
|454> *xyz 0 1
|455> O -5.4637904 -0.2529970 0.0012144
|456> H -4.5197196 -0.0940599 0.0005973
|457> H -5.8778176 0.6077623 -0.0005227
|458> O 1.1050447 0.1626388 -0.0003994
|459> H 1.7347029 -0.5607554 -0.0021125
|460> H 1.6320208 0.9648187 0.0125719
|461> *
|462> $new_job
|463> ! wb97m-D3BJ def2-TZVPP rijcosx tightscf SCFConvForced
|464> %base"molecule"
|465> *xyz 0 1
|466> O -5.5637903 -0.2529970 0.0012144
|467> H -4.6197195 -0.0940599 0.0005973
|468> H -5.9778175 0.6077623 -0.0005227
|469> O 1.1050447 0.1626388 -0.0003994
|470> H 1.7347029 -0.5607554 -0.0021125
|471> H 1.6320208 0.9648187 0.0125719
|472> *
|473> $new_job
|474> ! wb97m-D3BJ def2-TZVPP rijcosx tightscf SCFConvForced
|475> %base"molecule"
|476> *xyz 0 1
|477> O -5.6637902 -0.2529970 0.0012144
|478> H -4.7197194 -0.0940599 0.0005973
|479> H -6.0778179 0.6077623 -0.0005227
|480> O 1.1050447 0.1626388 -0.0003994
|481> H 1.7347029 -0.5607554 -0.0021125
|482> H 1.6320208 0.9648187 0.0125719
|483> *
|484> $new_job
|485> ! wb97m-D3BJ def2-TZVPP rijcosx tightscf SCFConvForced
|486> %base"molecule"
|487> *xyz 0 1
|488> O -5.7637901 -0.2529970 0.0012144
|489> H -4.8197198 -0.0940599 0.0005973
|490> H -6.1778178 0.6077623 -0.0005227
|491> O 1.1050447 0.1626388 -0.0003994
|492> H 1.7347029 -0.5607554 -0.0021125
|493> H 1.6320208 0.9648187 0.0125719
|494> *
|495> $new_job
|496> ! wb97m-D3BJ def2-TZVPP rijcosx tightscf SCFConvForced
|497> %base"molecule"
|498> *xyz 0 1
|499> O -5.8637905 -0.2529970 0.0012144
|500> H -4.9197197 -0.0940599 0.0005973
|501> H -6.2778177 0.6077623 -0.0005227
|502> O 1.1050447 0.1626388 -0.0003994
|503> H 1.7347029 -0.5607554 -0.0021125
|504> H 1.6320208 0.9648187 0.0125719
|505> *
|506> $new_job
|507> ! wb97m-D3BJ def2-TZVPP rijcosx tightscf SCFConvForced
|508> %base"molecule"
|509> *xyz 0 1
|510> O -5.9637904 -0.2529970 0.0012144
|511> H -5.0197196 -0.0940599 0.0005973
|512> H -6.3778176 0.6077623 -0.0005227
|513> O 1.1050447 0.1626388 -0.0003994
|514> H 1.7347029 -0.5607554 -0.0021125
|515> H 1.6320208 0.9648187 0.0125719
|516> *
|517> $new_job
|518> ! wb97m-D3BJ def2-TZVPP rijcosx tightscf SCFConvForced
|519> %base"molecule"
|520> *xyz 0 1
|521> O -6.0637903 -0.2529970 0.0012144
|522> H -5.1197195 -0.0940599 0.0005973
|523> H -6.4778175 0.6077623 -0.0005227
|524> O 1.1050447 0.1626388 -0.0003994
|525> H 1.7347029 -0.5607554 -0.0021125
|526> H 1.6320208 0.9648187 0.0125719
|527> *
|528> $new_job
|529> ! wb97m-D3BJ def2-TZVPP rijcosx tightscf SCFConvForced
|530> %base"molecule"
|531> *xyz 0 1
|532> O -6.1637902 -0.2529970 0.0012144
|533> H -5.2197194 -0.0940599 0.0005973
|534> H -6.5778179 0.6077623 -0.0005227
|535> O 1.1050447 0.1626388 -0.0003994
|536> H 1.7347029 -0.5607554 -0.0021125
|537> H 1.6320208 0.9648187 0.0125719
|538> *
|539> $new_job
|540> ! wb97m-D3BJ def2-TZVPP rijcosx tightscf SCFConvForced
|541> %base"molecule"
|542> *xyz 0 1
|543> O -6.2637901 -0.2529970 0.0012144
|544> H -5.3197198 -0.0940599 0.0005973
|545> H -6.6778178 0.6077623 -0.0005227
|546> O 1.1050447 0.1626388 -0.0003994
|547> H 1.7347029 -0.5607554 -0.0021125
|548> H 1.6320208 0.9648187 0.0125719
|549> *
|550> $new_job
|551> ! wb97m-D3BJ def2-TZVPP rijcosx tightscf SCFConvForced
|552> %base"molecule"
|553> *xyz 0 1
|554> O -6.3637905 -0.2529970 0.0012144
|555> H -5.4197197 -0.0940599 0.0005973
|556> H -6.7778177 0.6077623 -0.0005227
|557> O 1.1050447 0.1626388 -0.0003994
|558> H 1.7347029 -0.5607554 -0.0021125
|559> H 1.6320208 0.9648187 0.0125719
|560> *
|561> $new_job
|562> ! wb97m-D3BJ def2-TZVPP rijcosx tightscf SCFConvForced
|563> %base"molecule"
|564> *xyz 0 1
|565> O -6.4637904 -0.2529970 0.0012144
|566> H -5.5197196 -0.0940599 0.0005973
|567> H -6.8778176 0.6077623 -0.0005227
|568> O 1.1050447 0.1626388 -0.0003994
|569> H 1.7347029 -0.5607554 -0.0021125
|570> H 1.6320208 0.9648187 0.0125719
|571> *
|572> $new_job
|573> ! wb97m-D3BJ def2-TZVPP rijcosx tightscf SCFConvForced
|574> %base"molecule"
|575> *xyz 0 1
|576> O -6.5637903 -0.2529970 0.0012144
|577> H -5.6197195 -0.0940599 0.0005973
|578> H -6.9778175 0.6077623 -0.0005227
|579> O 1.1050447 0.1626388 -0.0003994
|580> H 1.7347029 -0.5607554 -0.0021125
|581> H 1.6320208 0.9648187 0.0125719
|582> *
|583> $new_job
|584> ! wb97m-D3BJ def2-TZVPP rijcosx tightscf SCFConvForced
|585> %base"molecule"
|586> *xyz 0 1
|587> O -6.6637902 -0.2529970 0.0012144
|588> H -5.7197194 -0.0940599 0.0005973
|589> H -7.0778179 0.6077623 -0.0005227
|590> O 1.1050447 0.1626388 -0.0003994
|591> H 1.7347029 -0.5607554 -0.0021125
|592> H 1.6320208 0.9648187 0.0125719
|593> *
|594> $new_job
|595> ! wb97m-D3BJ def2-TZVPP rijcosx tightscf SCFConvForced
|596> %base"molecule"
|597> *xyz 0 1
|598> O -6.7637901 -0.2529970 0.0012144
|599> H -5.8197198 -0.0940599 0.0005973
|600> H -7.1778178 0.6077623 -0.0005227
|601> O 1.1050447 0.1626388 -0.0003994
|602> H 1.7347029 -0.5607554 -0.0021125
|603> H 1.6320208 0.9648187 0.0125719
|604> *
|605> $new_job
|606> ! wb97m-D3BJ def2-TZVPP rijcosx tightscf SCFConvForced
|607> %base"molecule"
|608> *xyz 0 1
|609> O -6.8637905 -0.2529970 0.0012144
|610> H -5.9197197 -0.0940599 0.0005973
|611> H -7.2778177 0.6077623 -0.0005227
|612> O 1.1050447 0.1626388 -0.0003994
|613> H 1.7347029 -0.5607554 -0.0021125
|614> H 1.6320208 0.9648187 0.0125719
|615> *
|616> $new_job
|617> ! wb97m-D3BJ def2-TZVPP rijcosx tightscf SCFConvForced
|618> %base"molecule"
|619> *xyz 0 1
|620> O -6.9637904 -0.2529970 0.0012144
|621> H -6.0197196 -0.0940599 0.0005973
|622> H -7.3778176 0.6077623 -0.0005227
|623> O 1.1050447 0.1626388 -0.0003994
|624> H 1.7347029 -0.5607554 -0.0021125
|625> H 1.6320208 0.9648187 0.0125719
|626> *
|627> $new_job
|628> ! wb97m-D3BJ def2-TZVPP rijcosx tightscf SCFConvForced
|629> %base"molecule"
|630> *xyz 0 1
|631> O -7.0637903 -0.2529970 0.0012144
|632> H -6.1197195 -0.0940599 0.0005973
|633> H -7.4778175 0.6077623 -0.0005227
|634> O 1.1050447 0.1626388 -0.0003994
|635> H 1.7347029 -0.5607554 -0.0021125
|636> H 1.6320208 0.9648187 0.0125719
|637> *
|638> $new_job
|639> ! wb97m-D3BJ def2-TZVPP rijcosx tightscf SCFConvForced
|640> %base"molecule"
|641> *xyz 0 1
|642> O -7.1637902 -0.2529970 0.0012144
|643> H -6.2197194 -0.0940599 0.0005973
|644> H -7.5778179 0.6077623 -0.0005227
|645> O 1.1050447 0.1626388 -0.0003994
|646> H 1.7347029 -0.5607554 -0.0021125
|647> H 1.6320208 0.9648187 0.0125719
|648> *
|649> $new_job
|650> ! wb97m-D3BJ def2-TZVPP rijcosx tightscf SCFConvForced
|651> %base"molecule"
|652> *xyz 0 1
|653> O -7.2637901 -0.2529970 0.0012144
|654> H -6.3197198 -0.0940599 0.0005973
|655> H -7.6778178 0.6077623 -0.0005227
|656> O 1.1050447 0.1626388 -0.0003994
|657> H 1.7347029 -0.5607554 -0.0021125
|658> H 1.6320208 0.9648187 0.0125719
|659> *
|660> $new_job
|661> ! wb97m-D3BJ def2-TZVPP rijcosx tightscf SCFConvForced
|662> %base"molecule"
|663> *xyz 0 1
|664> O -7.3637905 -0.2529970 0.0012144
|665> H -6.4197197 -0.0940599 0.0005973
|666> H -7.7778177 0.6077623 -0.0005227
|667> O 1.1050447 0.1626388 -0.0003994
|668> H 1.7347029 -0.5607554 -0.0021125
|669> H 1.6320208 0.9648187 0.0125719
|670> *
|671> $new_job
|672> ! wb97m-D3BJ def2-TZVPP rijcosx tightscf SCFConvForced
|673> %base"molecule"
|674> *xyz 0 1
|675> O -7.4637904 -0.2529970 0.0012144
|676> H -6.5197196 -0.0940599 0.0005973
|677> H -7.8778176 0.6077623 -0.0005227
|678> O 1.1050447 0.1626388 -0.0003994
|679> H 1.7347029 -0.5607554 -0.0021125
|680> H 1.6320208 0.9648187 0.0125719
|681> *
|682> $new_job
|683> ! wb97m-D3BJ def2-TZVPP rijcosx tightscf SCFConvForced
|684> %base"molecule"
|685> *xyz 0 1
|686> O -7.5637903 -0.2529970 0.0012144
|687> H -6.6197195 -0.0940599 0.0005973
|688> H -7.9778175 0.6077623 -0.0005227
|689> O 1.1050447 0.1626388 -0.0003994
|690> H 1.7347029 -0.5607554 -0.0021125
|691> H 1.6320208 0.9648187 0.0125719
|692> *
|693> $new_job
|694> ! wb97m-D3BJ def2-TZVPP rijcosx tightscf SCFConvForced
|695> %base"molecule"
|696> *xyz 0 1
|697> O -7.6637902 -0.2529970 0.0012144
|698> H -6.7197194 -0.0940599 0.0005973
|699> H -8.0778179 0.6077623 -0.0005227
|700> O 1.1050447 0.1626388 -0.0003994
|701> H 1.7347029 -0.5607554 -0.0021125
|702> H 1.6320208 0.9648187 0.0125719
|703> *
|704> $new_job
|705> ! wb97m-D3BJ def2-TZVPP rijcosx tightscf SCFConvForced
|706> %base"molecule"
|707> *xyz 0 1
|708> O -7.7637901 -0.2529970 0.0012144
|709> H -6.8197198 -0.0940599 0.0005973
|710> H -8.1778173 0.6077623 -0.0005227
|711> O 1.1050447 0.1626388 -0.0003994
|712> H 1.7347029 -0.5607554 -0.0021125
|713> H 1.6320208 0.9648187 0.0125719
|714> *
|715> $new_job
|716> ! wb97m-D3BJ def2-TZVPP rijcosx tightscf SCFConvForced
|717> %base"molecule"
|718> *xyz 0 1
|719> O -7.8637905 -0.2529970 0.0012144
|720> H -6.9197197 -0.0940599 0.0005973
|721> H -8.2778177 0.6077623 -0.0005227
|722> O 1.1050447 0.1626388 -0.0003994
|723> H 1.7347029 -0.5607554 -0.0021125
|724> H 1.6320208 0.9648187 0.0125719
|725> *
|726> $new_job
|727> ! wb97m-D3BJ def2-TZVPP rijcosx tightscf SCFConvForced
|728> %base"molecule"
|729> *xyz 0 1
|730> O -7.9637904 -0.2529970 0.0012144
|731> H -7.0197196 -0.0940599 0.0005973
|732> H -8.3778181 0.6077623 -0.0005227
|733> O 1.1050447 0.1626388 -0.0003994
|734> H 1.7347029 -0.5607554 -0.0021125
|735> H 1.6320208 0.9648187 0.0125719
|736> *
|737> $new_job
|738> ! wb97m-D3BJ def2-TZVPP rijcosx tightscf SCFConvForced
|739> %base"molecule"
|740> *xyz 0 1
|741> O -8.0637903 -0.2529970 0.0012144
|742> H -7.1197195 -0.0940599 0.0005973
|743> H -8.4778175 0.6077623 -0.0005227
|744> O 1.1050447 0.1626388 -0.0003994
|745> H 1.7347029 -0.5607554 -0.0021125
|746> H 1.6320208 0.9648187 0.0125719
|747> *
|748> $new_job
|749> ! wb97m-D3BJ def2-TZVPP rijcosx tightscf SCFConvForced
|750> %base"molecule"
|751> *xyz 0 1
|752> O -8.1637907 -0.2529970 0.0012144
|753> H -7.2197194 -0.0940599 0.0005973
|754> H -8.5778179 0.6077623 -0.0005227
|755> O 1.1050447 0.1626388 -0.0003994
|756> H 1.7347029 -0.5607554 -0.0021125
|757> H 1.6320208 0.9648187 0.0125719
|758> *
|759> $new_job
|760> ! wb97m-D3BJ def2-TZVPP rijcosx tightscf SCFConvForced
|761> %base"molecule"
|762> *xyz 0 1
|763> O -8.2637901 -0.2529970 0.0012144
|764> H -7.3197198 -0.0940599 0.0005973
|765> H -8.6778173 0.6077623 -0.0005227
|766> O 1.1050447 0.1626388 -0.0003994
|767> H 1.7347029 -0.5607554 -0.0021125
|768> H 1.6320208 0.9648187 0.0125719
|769> *
|770> $new_job
|771> ! wb97m-D3BJ def2-TZVPP rijcosx tightscf SCFConvForced
|772> %base"molecule"
|773> *xyz 0 1
|774> O -8.3637905 -0.2529970 0.0012144
|775> H -7.4197197 -0.0940599 0.0005973
|776> H -8.7778177 0.6077623 -0.0005227
|777> O 1.1050447 0.1626388 -0.0003994
|778> H 1.7347029 -0.5607554 -0.0021125
|779> H 1.6320208 0.9648187 0.0125719
|780> *
|781> $new_job
|782> ! wb97m-D3BJ def2-TZVPP rijcosx tightscf SCFConvForced
|783> %base"molecule"
|784> *xyz 0 1
|785> O -8.4637899 -0.2529970 0.0012144
|786> H -7.5197196 -0.0940599 0.0005973
|787> H -8.8778181 0.6077623 -0.0005227
|788> O 1.1050447 0.1626388 -0.0003994
|789> H 1.7347029 -0.5607554 -0.0021125
|790> H 1.6320208 0.9648187 0.0125719
|791> *
|792> $new_job
|793> ! wb97m-D3BJ def2-TZVPP rijcosx tightscf SCFConvForced
|794> %base"molecule"
|795> *xyz 0 1
|796> O -8.5637903 -0.2529970 0.0012144
|797> H -7.6197195 -0.0940599 0.0005973
|798> H -8.9778175 0.6077623 -0.0005227
|799> O 1.1050447 0.1626388 -0.0003994
|800> H 1.7347029 -0.5607554 -0.0021125
|801> H 1.6320208 0.9648187 0.0125719
|802> *
|803> $new_job
|804> ! wb97m-D3BJ def2-TZVPP rijcosx tightscf SCFConvForced
|805> %base"molecule"
|806> *xyz 0 1
|807> O -8.6637907 -0.2529970 0.0012144
|808> H -7.7197194 -0.0940599 0.0005973
|809> H -9.0778179 0.6077623 -0.0005227
|810> O 1.1050447 0.1626388 -0.0003994
|811> H 1.7347029 -0.5607554 -0.0021125
|812> H 1.6320208 0.9648187 0.0125719
|813> *
|814> $new_job
|815> ! wb97m-D3BJ def2-TZVPP rijcosx tightscf SCFConvForced
|816> %base"molecule"
|817> *xyz 0 1
|818> O -8.7637901 -0.2529970 0.0012144
|819> H -7.8197198 -0.0940599 0.0005973
|820> H -9.1778173 0.6077623 -0.0005227
|821> O 1.1050447 0.1626388 -0.0003994
|822> H 1.7347029 -0.5607554 -0.0021125
|823> H 1.6320208 0.9648187 0.0125719
|824> *
|825>
|826>                          ****END OF INPUT****
 Total Charge           Charge          ....    0
 Multiplicity           Mult            ....    1
 Number of Electrons    NEL             ....   20
Dispersion correction           -0.002758692
FINAL SINGLE POINT ENERGY      -152.953865549170
Dispersion correction           -0.002673779
FINAL SINGLE POINT ENERGY      -152.957587990402
Dispersion correction           -0.002588421
FINAL SINGLE POINT ENERGY      -152.959752552041
Dispersion correction           -0.002503957
FINAL SINGLE POINT ENERGY      -152.960871083987
Dispersion correction           -0.002421467
FINAL SINGLE POINT ENERGY      -152.961311091560
Dispersion correction           -0.002341806
FINAL SINGLE POINT ENERGY      -152.961316168713
FINAL SINGLE POINT ENERGY      -152.961053717182
FINAL SINGLE POINT ENERGY      -152.960641661849
FINAL SINGLE POINT ENERGY      -152.960155153211
FINAL SINGLE POINT ENERGY      -152.959644452047
FINAL SINGLE POINT ENERGY      -152.953791584708
FINAL SINGLE POINT ENERGY      -152.953785722286
FINAL SINGLE POINT ENERGY      -152.953780150658
FINAL SINGLE POINT ENERGY      -152.953774839625
Dispersion correction           -0.001511033
FINAL SINGLE POINT ENERGY      -152.953769805183
Dispersion correction           -0.001510944
FINAL SINGLE POINT ENERGY      -152.953764986971
Dispersion correction           -0.001510861
FINAL SINGLE POINT ENERGY      -152.953760299927
Dispersion correction           -0.001510784
FINAL SINGLE POINT ENERGY      -152.953755914844
Dispersion correction           -0.001510712
FINAL SINGLE POINT ENERGY      -152.953751730565

CARTESIAN COORDINATES (ANGSTROEM)
---------------------------------
  O     -8.763790   -0.252997    0.001214
  H     -7.819720   -0.094060    0.000597
  H     -9.177817    0.607762   -0.000523
  O      1.105045    0.162639   -0.000399
  H      1.734703   -0.560755   -0.002112
  H      1.632021    0.964819    0.012572

 Multiplicity           Mult            ....    1
 Number of Electrons    NEL             ....   20
 Basis Dimension        Dim             ....  118

ORBITAL ENERGIES
----------------

  NO   OCC          E(Eh)            E(eV)
   0   2.0000     -19.331247      -526.0300
   1   2.0000     -19.327160      -525.9188
   2   2.0000      -1.140850       -31.0441
   3   2.0000      -1.138397       -30.9774
   4   2.0000      -0.642768       -17.4906
   5   2.0000      -0.641458       -17.4550
   6   2.0000      -0.499407       -13.5896
   7   2.0000      -0.495335       -13.4788
   8   2.0000      -0.425678       -11.5833
   9   2.0000      -0.422251       -11.4900
  10   0.0000       0.079464         2.1623
  11   0.0000       0.082960         2.2575
  12   0.0000       0.149423         4.0660
  13   0.0000       0.153675         4.1817
  14   0.0000       0.443025        12.0553

MULLIKEN ATOMIC CHARGES
-----------------------
   0 O :   -0.373983
   1 H :    0.187928
   2 H :    0.186055
   3 O :   -0.378140
   4 H :    0.189722
   5 H :    0.188418
Sum of atomic charges:    0.0000000

LOEWDIN ATOMIC CHARGES
----------------------
   0 O :    0.276215
   1 H :   -0.136126
   2 H :   -0.140090
   3 O :    0.268700
   4 H :   -0.134826
   5 H :   -0.133874

  Mayer bond orders larger than 0.100000
B(  0-O ,  1-H ) :   1.0339 B(  0-O ,  2-H ) :   1.0349 B(  3-O ,  4-H ) :   1.0311
B(  3-O ,  5-H ) :   1.0321

Dispersion correction           -0.001510646
FINAL SINGLE POINT ENERGY      -152.953747716323

DIPOLE MOMENT
-------------
                                X             Y             Z
Electronic contribution:     -0.29561      -0.19350      -0.00155
Nuclear contribution   :      1.40392       0.91433       0.00741
                        -----------------------------------------
Total Dipole Moment    :      1.10832       0.72083       0.00586
                        -----------------------------------------
Magnitude (a.u.)       :      1.32212
Magnitude (Debye)      :      3.36057

Rotational constants in cm-1:     8.828495     0.019019     0.018978
Rotational constants in MHz : 264671.619019   570.182823   568.957267

                             ****ORCA TERMINATED NORMALLY****
TOTAL RUN TIME: 0 days 0 hours 6 minutes 8 seconds 150 msec
